% Model:              weidaixian.mph        
% Version:            COMSOL 5.5.0.359      
% Date:               Oct 30 2021, 23:14    
% Dimension:          2                     
% Nodes:              11624                 
% Elements:           22828                 
% Expressions:        0                     
% Description:                              
% Length unit:        mm                    
% Coordinates
0.01096502301650057      0.01132650580872748      
0                        0.01666666666666666      
0                        0                        
0.01680672268908268      0                        
0.01254852450973572      0.02518893594413405      
0                        0.03333333333333333      
0.02546986788368444      0.01477692643283671      
0.03361344537815825      0                        
0.01316757695895544      0.04166892135432358      
0                        0.04999999999999999      
0.02568868137963531      0.03336125780024568      
0.03750855484014561      0.02585124855581997      
0.04298375116110417      0.01342178053961588      
0.05042016806723382      0                        
0.01367992307636289      0.05824267647013782      
0                        0.06666666666666665      
0.01370475974094778      0.07497050911512108      
0                        0.08333333333333331      
0.02709848237047707      0.0498674539152521       
0.04209503860691743      0.04111749417937174      
0.05130245208305428      0.02673511486198203      
0.0590640456344509       0.01344249277907829      
0.06722689075630939      0                        
0.0135631125238026       0.09166666666666665      
0                        0.09999999999999998      
0.01356386226172388      0.1083330693378795       
0                        0.1166666666666666       
0.02754957819502958      0.06663890887078898      
0.0274090788291886       0.08327552475191775      
0.04164297664581733      0.05864529956398554      
0.05370009706311248      0.05187235002871669      
0.0589525004766307       0.03965323883494404      
0.06743212843443794      0.02671398232386015      
0.07565834464321775      0.01343573875622658      
0.08403361344538496      0                        
0.01356463394002513      0.1249992311510043       
0                        0.1333333333333333       
0.01356111930646118      0.141654452377525        
0                        0.15                     
0.02712623398773847      0.1000023531745045       
0.02713620651724836      0.1166655388363509       
0.04176224850738386      0.07483198940831957      
0.04079589454390695      0.09165152492461956      
0.05716383162891496      0.06666999136040216      
0.06763363880239869      0.0531780962625383       
0.07555626647388328      0.04015606175091518      
0.08405855270382712      0.02685473187020316      
0.09243325779987613      0.01345377334711207      
0.1008403361344605       0                        
0.0135661570607517       0.1582789387956857       
0                        0.1666666666666666       
0.01357440831901574      0.1747561527205003       
0                        0.1833333333333333       
0.02712478457929428      0.1333250692812528       
0.02710977763483295      0.1499853990415576       
0.04072555902369448      0.1083811786767335       
0.04070141713531183      0.1249875320925464       
0.05464688142789531      0.08381972676042071      
0.05438020917168057      0.1002308459685704       
0.06752702498405205      0.07866585345616103      
0.07481927901591967      0.06677165991786406      
0.08404150924786993      0.05372465383636956      
0.09241013410361926      0.04037925773950265      
0.1008458775736809       0.02698156647142643      
0.1092471379422013       0.01350829183447842      
0.1176470588235361       0                        
0.01353104108806981      0.1911865499916188       
0                        0.2                      
0.01345654564193876      0.2072887770418623       
0                        0.2166666666666666       
0.02714530299557392      0.1665397007243552       
0.02711502512282072      0.1828549113768271       
0.04067555294188625      0.1416582621885326       
0.04058506959304409      0.1584539096794362       
0.05421339278628068      0.1167492770638091       
0.05425166507183776      0.1333697925586233       
0.06861807242125229      0.09233139320518807      
0.06767231975246626      0.1086456777847234       
0.08283207736631082      0.08247351326044214      
0.09197467759854722      0.06770084031549685      
0.100722207861025        0.05402552664023205      
0.109222268178774        0.04051961958459464      
0.1176536699751149       0.02703911468324925      
0.1260571926935861       0.01353754923555513      
0.1344537815126117       0                        
0.01120908338521355      0.2391813525490331       
0                        0.25                     
0                        0.2333333333333333       
0.0146528940926508       0.2245861005115509       
0.02686917808101276      0.1988064067482234       
0.02569783458234349      0.2124453879292305       
0.04089570360372929      0.1749700549434541       
0.0406654314360656       0.190895806993086        
0.05420262129516048      0.1498069151614283       
0.05395765723648027      0.1662489978786021       
0.06781294321501898      0.1254394923083839       
0.06790480072576942      0.1417991850140005       
0.08180328709182161      0.100070406871666        
0.08079386950015499      0.1176763999113866       
0.09417507811243198      0.09381082674925371      
0.100375346762006        0.08148424351554065      
0.1090576453381519       0.06772544472253264      
0.117603072226434        0.05408998567441943      
0.1260696621859743       0.04058609318245554      
0.1344687785958104       0.02707057694388301      
0.1428647590016314       0.01355176830966821      
0.1512605042016872       0                        
0                        0.2675                   
0.01300979319617579      0.2629748104618581       
0.01103805621552157      0.2744753318611303       
0                        0.285                    
0.01636363636363651      0.25                     
0.02502888646978042      0.2379873289002813       
0.03275779472603679      0.2242194040993176       
0.04074918546319974      0.2081670089230793       
0.05227826822978456      0.1977963743325805       
0.0561723107615929       0.1833419104824857       
0.06760910794672477      0.1576539979980627       
0.06651514784266299      0.1712579307989972       
0.08204161145360467      0.1343966215177604       
0.08151086181046943      0.1501283032769183       
0.09670340432924363      0.1077068155269184       
0.09440308417165061      0.1263631924079625       
0.1085878580230603       0.09620978821469044      
0.1087940465253704       0.1074117678784076       
0.1173319197193313       0.08128145253358247      
0.1259456239938197       0.06754085175157673      
0.1344557090745147       0.0540562307429372       
0.1428724595598391       0.04057087189910556      
0.1512756014208739       0.02708496265685791      
0.1596692788690795       0.01355976545610033      
0.1680672268907628       0                        
0.01077542902078169      0.2962551156059427       
0                        0.3016279069767442       
0.02544443769321237      0.2598700022787241       
0.01636363636363636      0.285                    
0.0258168515177957       0.2719018488437931       
0.03272727272727285      0.25                     
0.04085203863794118      0.2367192030820598       
0.04914478739203291      0.2231150047449321       
0.05783100379512213      0.2098906776141853       
0.06597102448435631      0.1966872854763778       
0.07387343553709003      0.182968273925741        
0.0815676906618185       0.1672234751158034       
0.09325064472035588      0.1569588017563914       
0.09670977406407315      0.1429139308448397       
0.1066786857454773       0.1327671541062411       
0.1090863937510827       0.1187288852041816       
0.1201418030355702       0.107092413015663        
0.1256452410991102       0.09400853568549669      
0.13437980309984         0.08071985131165775      
0.1428467818795503       0.06734347431705516      
0.1512753818416712       0.05398232974815501      
0.1596776181203321       0.04056788806382941      
0.1680742306071241       0.02709423817490178      
0.1764716233338199       0.01356554795426075      
0.1848739495798384       0                        
0.01233942671294226      0.3100323300256132       
0                        0.3182558139534886       
0.02517408202732982      0.2996153410273558       
0.03799899053171943      0.2618498841393594       
0.03272727272727272      0.285                    
0.04256054803352965      0.2732680043537714       
0.04909090909090921      0.25                     
0.0572245764978454       0.2365416241254082       
0.06545412008041381      0.2231521123919059       
0.07378380316668934      0.2098223631797385       
0.08187932449150868      0.1963013166434943       
0.08985120415236414      0.1823575524405622       
0.09836343262306235      0.1692394656139513       
0.1064555678542473       0.156093642495739        
0.1129177081057618       0.144207345007181        
0.1202764686348182       0.1316224170670406       
0.1263424201577017       0.1188707864953754       
0.1356505049495829       0.1061534623484967       
0.1426539252066041       0.09329561722823751      
0.1513240748756421       0.08041051736341773      
0.1597296487474451       0.0672549652379615       
0.1681003546273213       0.05396768419667947      
0.1764785787206958       0.04057661372204235      
0.1848706509574361       0.02710424984124799      
0.1932728952508581       0.01357083640764838      
0.201680672268914        0                        
0.012960907483691        0.3265019664056723       
0                        0.3348837209302328       
0.02521271790152241      0.3178317875133148       
0.03712378099889946      0.3105592822933955       
0.0420544971105379       0.2983464873726807       
0.05407431296024998      0.2618310093748444       
0.04909090909090909      0.285                    
0.05931644386778663      0.27336535823846         
0.06545454545454556      0.25                     
0.07360872095953859      0.2365743788900463       
0.08173367775561331      0.22317763645311         
0.08998872375702531      0.2097117011825361       
0.09811576353218478      0.1961777907177231       
0.1063180932493903       0.1827992716838708       
0.11446573438135         0.1696862031175808       
0.1219601597977178       0.1569122530780896       
0.1292566587412135       0.1443179664250465       
0.1365288890540368       0.1316038339501995       
0.1442842791436838       0.1187560152583153       
0.1521279249781026       0.106283088015321        
0.1600704758910593       0.09334565129585899      
0.1683102225086004       0.08037934432118178      
0.1765957084049742       0.06725807165397774      
0.1849197013534476       0.05398678475424278      
0.1932806860595349       0.0405952651012206       
0.2016700998166172       0.02711668739510279      
0.2100756744084545       0.01357659424203112      
0.2184873949579895       0                        
0.01353286135304182      0.3430199892075821       
0                        0.351511627906977        
0.02704961934351949      0.3345581453235633       
0.04148927258171457      0.3257628647176686       
0.05037549985672779      0.3116534576251047       
0.0576805179411084       0.2984209211103264       
0.0706165451385251       0.2616961223515549       
0.06545454545454546      0.285                    
0.07614967581490338      0.2733423542951519       
0.0818181818181819       0.25                     
0.08996722415063158      0.2365749003698535       
0.09812141673757879      0.2231325509766044       
0.1063157961910069       0.2096919698555046       
0.1144862291463608       0.1963006113005637       
0.1226261956610198       0.1830340069128435       
0.1304902251522515       0.1700198849583509       
0.138140842750403        0.1571702578342564       
0.1456920088484482       0.1444055464870204       
0.1533214987983556       0.1316502719683988       
0.1611051608076441       0.1189415862589294       
0.1690050790949166       0.1062119007127443       
0.1770332318893051       0.09336945255193883      
0.1851891635581115       0.08041267814434254      
0.1934284904027544       0.06729713285814913      
0.2017335188622364       0.0540220846584101       
0.2100881645929916       0.04062021099496384      
0.2184764372041752       0.02713042479756273      
0.2268825452100707       0.01358202713922307      
0.2352941176470651       0                        
0.01360325678734758      0.359765025897542        
0                        0.3681395348837213       
0.02720118228683181      0.3515008400349051       
0.0409813700100495       0.3433856295660267       
0.05306709401218881      0.3367152318974404       
0.05821374472860269      0.3247924489208876       
0.06603744447675311      0.3116590134456532       
0.07382419914748035      0.2983856327986135       
0.08716479440701652      0.2616725437365967       
0.08181818181818182      0.285                    
0.09266176502692917      0.2733355561401311       
0.09818181818181825      0.25                     
0.1063392759986727       0.2365647288831015       
0.1145068247971914       0.2231321762122187       
0.1226757795498888       0.2097324111406926       
0.1308224998631594       0.1964060750583141       
0.1388744949482773       0.1832109990656971       
0.146772410044334        0.1701746323316761       
0.1545428514847833       0.1572743993589122       
0.1622611146448846       0.1444722256543485       
0.17001670980521         0.1317301657454392       
0.1778592438496653       0.1189982813044463       
0.1858110348509446       0.1062435842512916       
0.1938575161883266       0.09341855130715532      
0.2020023500077596       0.080467326926144        
0.2102360274394095       0.06734876175252269      
0.2185427275360854       0.05406299833211436      
0.2269009836065833       0.04064596292579437      
0.2352901776148966       0.02714224256043378      
0.243693846130565        0.01358545029399222      
0.2521008403361407       0                        
0.01356182945129838      0.3764432485572291       
0                        0.3847674418604656       
0.02717733739363339      0.368219578342909        
0.0408625267417153       0.3600784119482676       
0.05660647353684783      0.3516313956025542       
0.06642567101442814      0.3380113137729868       
0.07426601249642585      0.3248312861667296       
0.0821282152228946       0.3116634687248556       
0.09006966019351446      0.2983919526231663       
0.1035919166088867       0.2616660448134702       
0.09818181818181819      0.285                    
0.1090642033307684       0.2733323939955675       
0.1145454545454546       0.25                     
0.1227108698281329       0.2365605514487099       
0.1308758083791046       0.2231371931261905       
0.1390335174020084       0.2097634650790899       
0.1471577980542213       0.1964707287409402       
0.1552088265591121       0.1832883737546226       
0.1631575349810468       0.1702391155479383       
0.1710126689663237       0.1573260465553745       
0.178823740658955        0.1445252691179084       
0.1866542151058556       0.1317874923159575       
0.1945529829736187       0.1190461997189635       
0.2025447690303176       0.1062931477104245       
0.2106165709514211       0.09347416562681976      
0.2187783321478959       0.08052273278191781      
0.2270277951592182       0.06739641512078492      
0.2353492613928261       0.05409749971986275      
0.2437175351762073       0.04066553784051476      
0.2521086542962194       0.02714957487942906      
0.2605075245774046       0.0135865267046129       
0.2689075630252162       0                        
0.01355334438853852      0.3930804414869885       
0                        0.4013953488372098       
0.02713038171473765      0.3848302377244349       
0.04073194196532029      0.3767598664555343       
0.05461192331912644      0.369676473271892        
0.07014322116102978      0.3643552193046223       
0.07541838294754494      0.3503066376736618       
0.08249152616092432      0.3379074611334826       
0.09031340939529788      0.3249259558758316       
0.0982954697609503       0.3117471598076181       
0.10637593256627         0.2984212314442882       
0.1199757266777861       0.2616634421595387       
0.1145454545454546       0.285                    
0.1254381241638106       0.273330746497885        
0.1309090909090909       0.25                     
0.1390770930820574       0.2365584214378606       
0.1472408341343134       0.223142423183224        
0.1553927525564759       0.209779701377458        
0.1635143900742802       0.1964950560346704       
0.1715787332392738       0.1833140210585702       
0.1795642196420292       0.1702634766667091       
0.1874760019904576       0.1573542564698359       
0.1953523444022771       0.1445623737153701       
0.2032455797379333       0.1318311083568827       
0.2111990827654611       0.1190892176264178       
0.2192320779947529       0.1063390885504923       
0.2273404137208094       0.09351962616449182      
0.2355352717825334       0.08056140503512606      
0.2438134859512942       0.06742370955738279      
0.2521562201934942       0.05411263140805413      
0.2605354119489573       0.04067157514591562      
0.2689269978555812       0.02715058747471896      
0.2773201729508134       0.01358581604032094      
0.2857142857142918       0                        
0.0135513641171623       0.409709302325582        
0                        0.4180232558139542       
0.0271037447381485       0.4013968961551108       
0.04065409235148684      0.3930813953488377       
0.0544508786590679       0.3859271961093633       
0.06824776613730538      0.3788911409414519       
0.08198441433118341      0.3727990867144231       
0.08237761580927774      0.360624626072919        
0.09024589589578594      0.3510968040504753       
0.09827978521606329      0.3382727692612104       
0.106422462881143        0.3251222257170057       
0.1145708017716715       0.3118175057966457       
0.1227303193099082       0.2984240227433335       
0.1363469367182034       0.2616618121691856       
0.1309090909090909       0.285                    
0.1418069928277335       0.2733297967867945       
0.1472727272727273       0.25                     
0.155442273961195        0.2365589573948827       
0.1636044480532084       0.2231468246598391       
0.1717534414843725       0.2097861040503095       
0.1798760293750115       0.1965004937162916       
0.1879516346721697       0.1833180469652222       
0.1959647676008829       0.1702694401314898       
0.2039216960103651       0.1573678149396672       
0.2118544916168824       0.1445869909961889       
0.2198065767593245       0.1318640742700295       
0.2278156594973208       0.1191226490143555       
0.2358947510419315       0.1063705127559899       
0.2440490502085424       0.09354295065261659      
0.2522880833368539       0.08057239764772649      
0.2606026056074935       0.06742330232479542      
0.268966963861353        0.0541058527291678       
0.2773523429944697       0.04066388961648041      
0.2857408623347604       0.02714560399273798      
0.2941292892230602       0.01358389949914038      
0.3025210084033674       0                        
0.01355136411716229      0.4263372093023263       
0                        0.4346511627906984       
0.02710272823432459      0.4180232558139542       
0.04065409235148684      0.4097093023255821       
0.05444234906486822      0.4019649104321921       
0.06833575874204564      0.3945894138923653       
0.08207159514764917      0.3874874821829619       
0.09289934556563043      0.3796830207325761       
0.09616242833980189      0.3657509513834815       
0.1064670098484945       0.3789524829172644       
0.1057690845218954       0.3518054615840224       
0.1143331935640037       0.3384914784224109       
0.1226487637000478       0.3251985015584395       
0.1308815967449107       0.3118449303243022       
0.1390832585802969       0.2984390178202402       
0.1527118702410979       0.2616600366507733       
0.1472727272727273       0.285                    
0.1581711822330181       0.2733286169691959       
0.1636363636363636       0.25                     
0.1718072930724406       0.2365619232776985       
0.1799692052340672       0.2231522543678091       
0.188116066335875        0.2097906439322238       
0.1962390490663983       0.1965010677700547       
0.2043243913674498       0.1833161478727767       
0.2123625385158376       0.1702704608899142       
0.2203604324494549       0.1573770165418175       
0.2283447705960871       0.1446058604878271       
0.2363526651631765       0.1318880730538182       
0.2444185461445939       0.1191429717068008       
0.2525497009009394       0.1063823738009557       
0.2607578054518189       0.09354126477264059      
0.2690467399602456       0.0805577216711407       
0.2773986457431791       0.06740226006442462      
0.2857810185667398       0.05408671601772514      
0.2941672917790107       0.0406514117583383       
0.3025500316135507       0.02713965956338189      
0.3109352844045528       0.01358227529676405      
0.3193277310924429       0                        
0.01355136411716229      0.4429651162790706       
0                        0.4512790697674427       
0.01355136411716228      0.4595930232558149       
0                        0.4679069767441869       
0.02710272823432458      0.4346511627906985       
0.04065409235148689      0.4263372093023263       
0.05439627772080483      0.4183143651581785       
0.0682738544761925       0.4104441907587242       
0.08245801536294377      0.4026261925636896       
0.09773040149463078      0.3934227173407549       
0.1158089244762966       0.3907513489753177       
0.1133936324063459       0.3652951776126903       
0.1226287463898444       0.3783637435295144       
0.1221946424707275       0.35191582486923         
0.1306664075235264       0.3386037570272498       
0.1389856801425526       0.3252655555883266       
0.1472336787512687       0.3118787898510593       
0.1554443498516975       0.2984524428228845       
0.1690747110293759       0.2616581512106064       
0.1636363636363637       0.285                    
0.1745342186962989       0.2733273834016491       
0.18                     0.25                     
0.1881712459631588       0.2365634899565661       
0.1963340696028974       0.2231547217982297       
0.2044812054995416       0.2097924880041633       
0.2126064077929497       0.1965012268033075       
0.2207027520208162       0.1833169036016024       
0.2287652892700253       0.170276484035385        
0.2368006983109598       0.1573905142809963       
0.2448322642135418       0.14462364253466         
0.2528943649427997       0.1319030107779938       
0.2610193629945921       0.1191476427049837       
0.2692076467755189       0.1063742852245098       
0.2774738883494747       0.09352052207104156      
0.2858134605367598       0.08053064217923729      
0.2941989238704619       0.06737760980183967      
0.3025941712057941       0.05406977138118733      
0.3109787106221699       0.04064265021149748      
0.3193565340112652       0.02713683109734526      
0.327740420054293        0.01358208428793857      
0.3361344537815185       0                        
0.01355136411716229      0.4762209302325591       
0                        0.4845348837209312       
0.01355136411716229      0.4928488372093033       
0                        0.5011627906976754       
0.02710272823432458      0.4512790697674428       
0.02710272823432458      0.467906976744187        
0.04065409235148686      0.4429651162790706       
0.0543225643226422       0.4348054917467652       
0.06810468676658189      0.4267942346738221       
0.08204823828567601      0.4188765749402636       
0.09628824403146846      0.4109367762670673       
0.1110216088726035       0.405509816685607        
0.1235090124411775       0.4015001759413274       
0.1310256978340291       0.391342319618222        
0.1302677890690498       0.3652713944842956       
0.1388071502665266       0.3785643612676699       
0.1387295523640074       0.3520058476464649       
0.1470830902394568       0.3386901076858956       
0.1553660794417605       0.325320125178421        
0.1636032243063798       0.3119051558631425       
0.1718100271718986       0.298461406695292        
0.1854368725853039       0.261656337958977        
0.18                     0.285                    
0.1908968609382307       0.2733262145248871       
0.1963636363636364       0.25                     
0.2045342959833504       0.2365618240961201       
0.212698747695259        0.2231522017332706       
0.2208487590773791       0.2097903850785308       
0.2289801997206962       0.1965022812967387       
0.2370898936357405       0.1833237518048023       
0.2451758933677964       0.1702900369410796       
0.2532453438078028       0.1574075810599998       
0.2613216300102412       0.1446371030740346       
0.2694386224744361       0.1319056994469363       
0.2776234158575765       0.1191378434311139       
0.2858709913524773       0.1063517749939723       
0.2941952310527216       0.09348981539229752      
0.3025809430607153       0.08050169510698559      
0.3109946560363724       0.06735902371125822      
0.3194010511714726       0.05406198181492199      
0.3277857190233124       0.04063998804031078      
0.3361617928615208       0.02713580584653891      
0.3445462213714286       0.0135818810571041       
0.3529411764705941       0                        
0.0135513641171623       0.5094767441860477       
0                        0.5177906976744198       
0.01355136411716229      0.526104651162792        
0                        0.534418604651164        
0.02710272823432458      0.4845348837209313       
0.02710272823432456      0.5011627906976757       
0.04065409235148687      0.4595930232558149       
0.04065409235148687      0.4762209302325591       
0.05425159130983825      0.4513345993815402       
0.06793182313474347      0.4432059100263243       
0.08169691816368367      0.435213587239841        
0.09547034666948064      0.4272509968518788       
0.1096452823774664       0.4204589827200899       
0.1237698325272411       0.4145564434813158       
0.1379190192868536       0.4061742157695785       
0.1468363441464005       0.3921544467348355       
0.1469308191903193       0.3653973630342717       
0.1551528682912542       0.3788550671162618       
0.1552214352654756       0.3521154696215175       
0.1635039955251341       0.3387642313711133       
0.1717549108679984       0.3253588849123614       
0.1799771507059134       0.3119225567744251       
0.1881767059387919       0.2984665833075998       
0.2017989482799658       0.2616548603904854       
0.1963636363636364       0.285                    
0.2072593657384681       0.2733253304349937       
0.2127272727272727       0.25                     
0.2208997688126466       0.2365595838308771       
0.2290668772349019       0.2231489565003684       
0.2372213622701683       0.209789208100142        
0.2453608659723581       0.1965076164460785       
0.2534848178661492       0.1833375945541889       
0.2615926307010872       0.1703080381478077       
0.2696941217229295       0.1574214525387833       
0.2778154618980912       0.1446394735705231       
0.2859889472414403       0.1318942597657677       
0.2942350471564339       0.1191141444461566       
0.3025403612928854       0.106319670899245        
0.3109171889419736       0.09345655461110297      
0.3193418833946519       0.08047541981318738      
0.3277771728886965       0.06734359579962131      
0.3361950418436835       0.05405566572903778      
0.3445868879717096       0.04063755771643333      
0.3529667020342229       0.02713283690375738      
0.3613529995709927       0.01357928585244105      
0.3697478991596697       0                        
0.01355136411716229      0.5427325581395362       
0                        0.5510465116279082       
0.0271027282343245       0.5177906976744201       
0.02710272823432416      0.5344186046511653       
0.04065409235148681      0.4928488372093036       
0.04065409235148654      0.5094767441860487       
0.05421578225090754      0.4679190839440877       
0.05420616235695225      0.4845355256818695       
0.06781799259962087      0.4596816968458796       
0.08148308810612732      0.4515909697655169       
0.09516519742559271      0.4436185761728941       
0.1360839570703139       0.4215437530332891       
0.1088777850007724       0.4359535810847503       
0.1226561022428145       0.4289337928375752       
0.1475555337670234       0.416846106468019        
0.1547975168457469       0.4056645536647214       
0.1633156675469632       0.3923243306537834       
0.1634038454472789       0.3655666617677945       
0.1716011828617962       0.3790089842040427       
0.1716597377022775       0.352207433637102        
0.1799113405694663       0.3388166353576856       
0.1881406008645216       0.3253834979068007       
0.1963499166831566       0.311932739592317        
0.2045427857399683       0.2984692454007076       
0.2181612143401962       0.2616541637039837       
0.2127272727272728       0.285                    
0.2236219023819396       0.2733249105966498       
0.2290909090909091       0.25                     
0.2372676801352316       0.2365596046498821       
0.2454384568456866       0.2231503792714842       
0.2535979886242869       0.2097945506853562       
0.261745563914148        0.1965191050901752       
0.2698824102238751       0.1833537025604925       
0.2780112363982617       0.1703214234517228       
0.2861457730182907       0.1574224048349243       
0.2943156600043025       0.1446260977410454       
0.3025495748116215       0.1318687180854947       
0.3108571683056885       0.1190811866028744       