% Model:              weidaixian.mph        
% Version:            COMSOL 5.5.0.359      
% Date:               Nov 2 2021, 22:12     
% Dimension:          2                     
% Nodes:              5305                  
% Elements:           10327                 
% Expressions:        0                     
% Description:                              
% Length unit:        mm                    
% Coordinates
0.01625482084211463      0.01691511412842796      
0                        0.02499999999999999      
0                        0                        
0.02500000000000702      0                        
0.01857850080388316      0.03764639858717151      
0                        0.04999999999999999      
0.05000000000000693      0                        
0.03769560340668299      0.0219291720549683       
0.06386458120614673      0.02015062639273084      
0.07500000000000684      0                        
0.01947584845127235      0.06235806966189458      
0                        0.07499999999999998      
0.03805902404596784      0.04965606727049178      
0.0560962560984205       0.03862372957185545      
0.02004506787853573      0.08729394383877159      
0                        0.09999999999999998      
0.08813582821380687      0.02021203042985527      
0.1000000000000068       0                        
0.07685940026617831      0.04044820265269763      
0.04017249797924736      0.07455200827493265      
0.06261039865605672      0.06158254776629066      
0.04015607690967143      0.09958803037868635      
0.02011802329435344      0.1122626317157901       
0                        0.125                    
0.02012535606475089      0.1372240759331035       
0                        0.15                     
0.1128204112788583       0.02021272803328001      
0.1250000000000067       0                        
0.1008051149955451       0.04064614758073304      
0.08938638223855566      0.06151614831980486      
0.06022133667343932      0.08706233782871767      
0.07858561717457022      0.07930028446910321      
0.06014966251826104      0.1117994797965508       
0.04022987311419176      0.1245577808173553       
0.01983953849168933      0.1619770926560161       
0                        0.175                    
0.0400632217400604       0.1493627520681082       
0.01912267667060019      0.1863168925371017       
0                        0.2                      
0.1376094568747293       0.02006695040706628      
0.1500000000000066       0                        
0.1251683240334802       0.0402575181092702       
0.112458915528201        0.0612232633758546       
0.1009963505579752       0.08544856568358059      
0.08009946155853681      0.1005783149316156       
0.08092827401011959      0.1245450446085548       
0.06075838769368917      0.1371104281498148       
0.03934827151205378      0.1735581248078141       
0.06006006222186627      0.1617505906301399       
0.03781455524835808      0.1934166021754852       
0.02155844664363149      0.2121134133832948       
0                        0.225                    
0.01640307969867427      0.2338243612817955       
0                        0.25                     
0.1625446253636802       0.01991885382618308      
0.1750000000000065       0                        
0.1500230490747602       0.03985954912068477      
0.1374212876166336       0.05956408267474406      
0.1259893858991751       0.07918850491258929      
0.1210593006800416       0.09901275555153198      
0.1042093807204423       0.1135657587096763       
0.09888141427199618      0.1351133483039802       
0.08311348817457885      0.1506474567200692       
0.07707654952012064      0.1722719667275331       
0.05999880377014827      0.187552959519531        
0.04794416410691912      0.2108676336384168       
0.03641204779953734      0.2318056528880768       
0.02400000000000059      0.25                     
0                        0.2675                   
0.0151344522620245       0.2674740014139105       
0                        0.285                    
0.01582121957353385      0.3017168350032718       
0                        0.3096551724137931       
0.1875606394710219       0.0198505331855107       
0.2000000000000064       0                        
0.1751159458932614       0.03967334738173437      
0.024                    0.285                    
0.1626072209905577       0.05948356924176308      
0.151214757951883        0.07864148161612589      
0.1407462561347617       0.09758381292814616      
0.1284116320458121       0.1167175216679742       
0.1187153175392025       0.1341838758645369       
0.1073375229394469       0.1526545926326749       
0.09675220656481309      0.1710862259877868       
0.08509523526875416      0.1904575660371361       
0.07205766188669449      0.2100529478932489       
0.05982346929314508      0.2302642259708643       
0.04800000000000055      0.25                     
0.03653776933303602      0.2674955312872674       
0.01818993556532548      0.3221068056263607       
0                        0.3343103448275862       
0.03691616230234375      0.3068221969762053       
0.2125746691161536       0.01981774105887608      
0.2250000000000063       0                        
0.2002049599247873       0.0395494003009911       
0.1879458692060155       0.05914152199728717      
0.04800000000000001      0.285                    
0.1760047271026812       0.07851429078817615      
0.1645773198781763       0.09738165112761378      
0.1529609004322811       0.115893019301511        
0.1419086028117935       0.1342691578455984       
0.1309704363668082       0.1531026336683649       
0.1197941926185945       0.1718152499325472       
0.1082993677508968       0.1909605303641078       
0.09625427170740182      0.2104078839648461       
0.08396240439955868      0.230100958633438        
0.07200000000000049      0.25                     
0.060092244595673        0.2674992249672515       
0.06168777458637895      0.304933700205552        
0.0191790029505125       0.3465219170962596       
0                        0.3589655172413793       
0.03723216998325202      0.3336054772534953       
0.054550629714886        0.3231336668405231       
0.2375666136852225       0.01980847626547116      
0.2500000000000062       0                        
0.2252030486884856       0.03950239850310722      
0.2129568347121524       0.05901556076012626      
0.2008976896756428       0.07831753349216559      
0.07200000000000001      0.285                    
0.1890834213601968       0.09740615572556058      
0.1774750349201057       0.1160956415992012       
0.1660101560926333       0.1347237381155959       
0.1547038038210722       0.1534158047797002       
0.1433631784707395       0.1722771209551316       
0.1318420173744465       0.1913339360594623       
0.1200582829713708       0.2106623202028681       
0.1080468650286466       0.2302365835959882       
0.09600000000000046      0.25                     
0.08401579897630894      0.2674998585793193       
0.08468953917835965      0.3049378850123154       
0.07398022616730766      0.3247206174051817       
0.01993557286773173      0.3712177636399643       
0                        0.3836206896551724       
0.03974298757692028      0.3587985184620552       
0.06055842829006841      0.3462881326966724       
0.2625491645032386       0.01980900049622432      
0.2750000000000061       0                        
0.2501571690330698       0.03949144058900549      
0.2378642621852444       0.05897628331452162      
0.2257139457160103       0.07823699530290855      
0.2137391245261504       0.09729683483230755      
0.09600000000000002      0.285                    
0.2019378062578567       0.1162406009902539       
0.1902806054994901       0.1349286843346722       
0.1787338784377352       0.1536533718144711       
0.1672159767073605       0.172507512551115        
0.1556223785746657       0.1915505326370154       
0.1438847422835295       0.210822635683587        
0.1319920398147376       0.23032342546601         
0.1200000000000004       0.25                     
0.1080026716845755       0.2674999649295981       
0.02013789673064638      0.3958987602983749       
0                        0.4082758620689655       
0.1083434232649318       0.3048953303234695       
0.09696283595245492      0.3246440386913143       
0.08548854042749007      0.3442811751138823       
0.04018643081435602      0.3836973255522383       
0.06031520320735773      0.3717923684444547       
0.0778266376163842       0.3620456637176965       
0.2875274796541659       0.01980391094785088      
0.300000000000006        0                        
0.2750876571614398       0.03947997599331767      
0.2627254421007099       0.05895457983956118      
0.2504821041084994       0.07820065595387526      
0.238382533734012        0.09725554646407246      
0.2264305615748841       0.1161796343114915       
0.12                     0.285                    
0.2146136997155824       0.1350065476952811       
0.2029021263288974       0.1537864324214294       
0.1912373205316509       0.1726441338042582       
0.1795521972066223       0.1916712494752463       
0.1677919660096467       0.2109168549700734       
0.1559350297093817       0.2303763363518996       
0.1440000000000003       0.25                     
0.1320004169955254       0.2674999866072301       
0.02014807126687267      0.4205629327467336       
0                        0.4329310344827586       
0.04027559419028871      0.4084281003310281       
0.02014249751930153      0.445249918468712        
0                        0.4575862068965517       
0.1321771549106857       0.3048352623797414       
0.1205227688939939       0.3245561780949081       
0.1089820432446195       0.3441354578936045       
0.09738996295712871      0.363775219240819        
0.06054414530812953      0.3962368270662563       
0.08303258963828794      0.3836877431718094       
0.3125057983023573       0.01979800412136132      
0.325000000000006        0                        
0.30000509663637         0.03945768877027554      
0.2875660095111284       0.05892495199363598      
0.2752285942149728       0.07816868855529781      
0.2630168093037606       0.09722671562453737      
0.2509332744731038       0.1161978961302927       
0.2389823960051705       0.1350361856252676       
0.144                    0.285                    
0.2271315065032263       0.1538510322829838       
0.2153433341633366       0.1727231538242292       
0.2035686796537439       0.1917463859779498       
0.1917630304475242       0.2109767164374097       
0.1799055798366591       0.2304110227902662       
0.1680000000000003       0.25                     
0.1560000338120892       0.2674999910622208       
0.02012814251839324      0.4699164210899435       
0                        0.4822413793103448       
0.04029333781814851      0.4329857870172528       
0.06034368320357916      0.4211869693053127       
0.04026748688186123      0.4576127069385159       
0.1560695521738464       0.304836916525327        
0.1442172938344876       0.3245988547939264       
0.1325082131638156       0.3441307951955728       
0.1210425938712291       0.3633707477617872       
0.1107090276458426       0.3818569852777149       
0.08035422777991269      0.4102760026352073       
0.1035151490491942       0.4027258139217478       
0.337473867996394        0.01978218572394446      
0.3500000000000059       0                        
0.3249284634632589       0.03943412699955292      
0.3124134025036077       0.05889105194401306      
0.2999814020216348       0.07813200245495305      
0.2876609368175196       0.09718801661791066      
0.2754639308128539       0.1161348032339422       
0.2633764184437394       0.1350353700859892       
0.2513971721702041       0.1538735253266963       
0.168                    0.285                    
0.239496625268636        0.1727613580176566       
0.2276354200961305       0.1917898743908809       
0.2157768843244992       0.2110161675578412       
0.2039002071143254       0.2304362496274681       
0.1920000000000003       0.25                     
0.1799999702323497       0.2674999917757812       
0.02013230913089162      0.4945689978435651       
0                        0.5068965517241379       
0.02013882350610796      0.5192241379310345       
0                        0.5315517241379309       
0.04027826395799329      0.4822649749398711       
0.06036824764660079      0.4457317554265955       
0.0803393674847222       0.4343961181104334       
0.06043433996860086      0.4700019554074729       
0.1800051899732807       0.3048697051723672       
0.1680458789663826       0.3246499046490067       
0.1561024837658982       0.3443267793914425       
0.1441912685402125       0.3637231514564225       
0.1324752265183387       0.3825799508054293       
0.1216207077610483       0.3972570594266053       
0.1005044194487673       0.4242300182979929       
0.120701365206574        0.4149198143603086       
0.3624641011901827       0.01977700340301247      
0.3750000000000058       0                        
0.3498734247038955       0.03941035557776968      
0.3372928619869383       0.05885726988493153      
0.3247695306629283       0.07809296869244194      
0.3123398204950358       0.09714807455832473      
0.300025591087824        0.1160946701553369       
0.2878052833641007       0.1350106546291468       
0.2756983362395928       0.1538701890088363       
0.2636855010669779       0.1727718836636301       
0.192                    0.285                    
0.251736702025175        0.1918103502731802       
0.2398198865828344       0.2110398903226575       
0.2279111417596635       0.2304535760643855       
0.2160000000000002       0.25                     
0.203999929979185        0.2674999911116733       
0.02013882350610796      0.5438793103448275       
0                        0.5562068965517242       
0.02013882350574501      0.5685344828172167       
0                        0.5808620689655173       
0.04028261601637236      0.5069180849224691       
0.04028102819448525      0.5315618581485541       
0.06043978031327241      0.4946471729052584       
0.08052269954844256      0.4583026071666366       
0.1007156951284949       0.4470840878861559       
0.08060312188107172      0.4824135578149869       
0.2039862181020889       0.3048844532428617       
0.1919646990128211       0.3247168947550054       
0.179909437828644        0.3444670770184082       
0.1677507938514402       0.3641166515567594       
0.155262687350475        0.3837767966925298       
0.1413404002564619       0.40437381959811         
0.1207107375320422       0.4361059051384115       
0.1365167771919305       0.4248262697789837       
0.3875008941494297       0.01981118460555075      
0.4000000000000057       0                        
0.3748565392807752       0.03939430381085259      
0.3622167224509464       0.05882320448683487      
0.349610174493365        0.07805138641591165      
0.3370744641726524       0.09710454663891882      
0.3246411999178135       0.1160535958151335       
0.3122855602632312       0.1349780223329075       
0.3000460484620718       0.1538502581486743       
0.287914553811979        0.172765524080334        
0.275870470063743        0.1918159187238655       
0.216                    0.285                    
0.2638855242315265       0.2110512503968888       
0.2519339526877194       0.2304627464308444       
0.2400000000000002       0.25                     
0.2279995576223929       0.2674999912350842       
0.2279870098968887       0.3049043937519282       
0.02013882350360529      0.5931896554250032       
0                        0.6055172413793104       
0.0201388234907417       0.6178448286507762       
0                        0.6301724137931034       
0.0402783631981589       0.5562089420520763       
0.04027764684013693      0.5808620699456064       
0.06043486505774757      0.519270831517835        
0.06042466912975702      0.5438980913512944       
0.0806072150372532       0.5070292221751065       
0.1008639512414167       0.4708657282113813       
0.1213764148339035       0.4590080372273794       
0.1008333583790132       0.49505596463301         
0.2159512349853543       0.3247740704536087       
0.2038731894033728       0.3445879638064221       
0.1917046021712408       0.3643300623657104       
0.1793257619921908       0.384026074654736        
0.1664901352459092       0.403827214919486        
0.1567303442486798       0.4238423037603722       
0.1433925899269185       0.4450786622905873       
0.4124637333573189       0.01974688238499641      
0.4250000000000056       0                        
0.3998485135304486       0.03936372353298142      
0.3871742723039643       0.05878336548864151      
0.3745002109785044       0.07800333217743528      
0.3618706070993351       0.09705392727143315      
0.3493242888034322       0.1160053971453408       
0.3368387864064277       0.134936238188151        
0.3244635924417831       0.153818829683174        
0.3122043925424577       0.1727474043265915       
0.3000507441249884       0.1918106191073688       
0.2879802924161077       0.2110543751500235       
0.24                     0.285                    
0.2759695984890955       0.2304676559348502       
0.2640000000000001       0.25                     
0.2519973605990121       0.2674999758375734       
0.2520019788900656       0.3049219798024951       
0.2399734468056418       0.3248185215641224       
0.02013882341879455      0.6425000043699274       
0                        0.6548275862068966       
0.02013882303985919      0.6671551897765093       
0                        0.6794827586206896       
0.04027764643949181      0.6055172450940287       
0.04027764529929015      0.630172427171565        
0.0604180804573586       0.5685380336870623       
0.06041646916815383      0.5931896612069626       
0.08058964525268515      0.5316341673639311       
0.08056953615647421      0.5562364374525538       
0.1007946696387899       0.5195352163978572       
0.1211326245504095       0.4833446555530652       
0.1414428906241394       0.471569184284675        
0.1210158820491026       0.5075314254322546       
0.2279086103737973       0.3446783425198365       
0.2157890891993217       0.3644923117059042       
0.2035744332192813       0.3842332753293968       
0.1911717919706897       0.4038541969552126       
0.1801760007416404       0.4233505431492006       
0.170153538058074        0.4412989612792178       
0.1635374625940518       0.4628810219416236       
0.4374959491167377       0.01977023353147234      
0.4500000000000055       0                        
0.4248391770621205       0.03932511107226369      
0.4121448671883098       0.05873255204430978      
0.3994239480191482       0.07794449042821901      
0.3867197352292798       0.09699226307416191      
0.3740758778973439       0.1159466165542316       
0.3614769689492696       0.1348837879672289       
0.3489731842774124       0.1537761406107787       
0.3365825810215777       0.1727170237793915       
0.3243059763168487       0.1917927723829273       
0.3121275186011536       0.2110486171048606       
0.3000284813669313       0.2304698743434116       
0.264                    0.285                    
0.2880000000000001       0.25                     
0.2759845833878763       0.2674998706772466       
0.2760292940987381       0.3049360529321327       
0.2639930546827947       0.3248462482365453       
0.2519509324442284       0.3447327774855933       
0.02013882115528413      0.6918104108680175       
0                        0.7041379310344827       
0.02013881234663488      0.7164657526464447       
0                        0.7287931034482757       
0.04027764260559567      0.6548276313230375       
0.04027763783257162      0.6794828980029738       
0.06041646648232568      0.6178448482495814       
0.0604164598925252       0.6425000671053426       
0.08055856949552175      0.580868642585653        
0.08055529047744799      0.6055172569065875       
0.1007509088618384       0.5440218161494711       
0.1007172599020598       0.5685800702454525       
0.1209885302707478       0.5319941316270033       
0.1412634438438301       0.4960423610776649       
0.1615624061211494       0.4854754322962122       
0.1412413249729553       0.5201247133236683       
0.2398841585560749       0.3645988101567121       
0.2277824826144048       0.3844577934193995       
0.215674796868407        0.4042052234303162       
0.2038447640916427       0.4238842659401627       
0.1926077022392395       0.4432856474852246       
0.1813269530387299       0.457629236981193        
0.1810822074783443       0.4757229249300359       
0.4624521257114255       0.01970213517041674      
0.4750000000000054       0                        
0.4498284824061311       0.03928212780117998      
0.4371212819537657       0.0586730366260754       
0.4243690914592889       0.07787416328385784      
0.4116098038854747       0.09691819201753631      
0.3988877964067301       0.1158755966553278       
0.3861977796682369       0.1348185436194194       
0.3735827184446321       0.1537198357443731       
0.3610684251060119       0.1726715732300548       
0.3486657027158828       0.1917584761101025       
0.3363689977097679       0.2110221458461261       
0.3241417627317018       0.230458466692862        
0.3120000000000001       0.25                     
0.288                    0.285                    
0.2999101337324271       0.2674992499787934       
0.3000362887369933       0.3049656795241723       
0.2879666324442182       0.324876252597105        
0.2759372407451264       0.3447639483922512       
0.2639258909342496       0.3646436073443027       
0.02013877422393994      0.7411214416797653       
0                        0.7534482758620689       
0.04027763119023913      0.7041383142064968       
0.04027760463305403      0.7287940424556737       
0.06041644797639299      0.6671553787743556       
0.06041644402833892      0.6918109533488522       
0.08055528335484657      0.630172464596812        
0.08055526536332487      0.6548277476523897       
0.1007013526657276       0.5932033802446248       
0.1006941309760246       0.617844894172127        
0.1209297926014377       0.5564193000382688       
0.1208713186515336       0.5809328396472917       
0.141254193381381        0.5443959944938745       
0.1614816556069527       0.5092883816756608       
0.1814146694130617       0.4977313308943657       
0.1617845899723684       0.5324554666728522       
0.2519042590845398       0.3845333752157343       
0.2398686617640255       0.4045065345575621       
0.2278066475503981       0.4242952743801636       
0.2153700970847869       0.4441555034172109       
0.2015713878343548       0.4650066573269508       
0.1968212194985762       0.4856437784075988       
0.4874423334955384       0.01966835831667408      
0.5000000000000053       0                        
0.4748143527721073       0.03922786367029163      
0.4621055314257206       0.05861075044551822      
0.4493326240787992       0.07780097795159746      
0.4365325728000763       0.09683900097474914      
0.4237492044508428       0.1157964448204126       
0.4109879220792365       0.134740377924436        
0.3982840287685905       0.153649159647953        
0.3856664704320509       0.1726114240112697       
0.3731505805751767       0.191709693723429        
0.3607294679083672       0.2109786469635461       
0.3484058242926676       0.2303956611286829       
0.336                    0.25                     
0.3234762180073826       0.2674956294876616       
0.3119999999999999       0.285                    
0.3241021679937465       0.3049558363013569       
0.3119048620674164       0.3249346424994874       
0.2998098133259797       0.3448054844689095       
0.2878597058743162       0.3646655688923645       
0.2759497435113          0.3845445943957178       
0.02013862701494195      0.7657777944687622       
0                        0.778103448275862        
0.02013817367769514      0.7904338230515391       
0                        0.802758620689655        
0.02013764937005037      0.8150866787234688       
0                        0.8274137931034481       
0.04027747661503234      0.7534511125318503       
0.06041653774046302      0.7164673160692802       
0.06041707804857382      0.7411263690012091       
0.08055523063360222      0.6794832500018478       
0.08055520933252812      0.7041393671812264       
0.1006941530146038       0.6425000135130979       
0.1006943506833681       0.6671548685635965       
0.1208461097494803       0.6055411123354838       
0.1208329779727936       0.6301728592723372       
0.1411221115649733       0.5687718572209705       
0.1410270793276411       0.5932812958107954       
0.1614729637595347       0.5566260666508269       
0.1832628034417019       0.5199466813813794       
0.2044690816857249       0.5062560686258323       
0.1819945986716846       0.5443509625117023       
0.2639926326845332       0.4044386356581327       
0.2519008392250675       0.4243339077527105       
0.2395526163919968       0.4442566567583077       
0.226821239504786        0.4641939027939437       
0.2169187662449831       0.4844654631639962       
0.2301766041275984       0.50296575995334         
0.5124516822555849       0.01964537827892469      
0.5250000000000052       0                        
0.4998214182161809       0.0391874215258085       
0.4871017898933381       0.05855623579467309      
0.4743101542200037       0.07773533308759668      
0.4614780953894664       0.09676387738485059      
0.4486463880215989       0.1157153685647897       
0.4358315126373077       0.1346545049492138       
0.4230593593740665       0.1535672587725532       
0.4103634141760734       0.1725401665424076       
0.3977623772383974       0.1916519638552993       
0.3852475135652701       0.2109398165083354       
0.3727335125622797       0.2303529026691705       
0.36                     0.25                     
0.3449471743118689       0.2674745269471762       
0.336                    0.285                    
0.36                     0.2675                   
0.3483387657385245       0.3053148550106741       
0.3356885634927211       0.3251441378415135       
0.3235069005124895       0.3449004733450092       
0.3116054347072204       0.364694846557063        
0.2998832903708696       0.3845372996860825       
0.2881140274853458       0.4044471247385291       
0.02013882350610796      0.8397413793103446       
0                        0.8520689655172412       
0.04027694495735109      0.778111714436997        
0.04027475552662548      0.8027704109790599       
0.04027288199031374      0.827407121056619        
0.06041837242052617      0.7657933062025227       
0.08055547656216384      0.7287972107284099       
0.08055768707733525      0.7534607781167856       
0.1006944041692849       0.6918099938396296       
0.1006938559885661       0.7164661493000868       
0.1208329978059966       0.6548274360392616       
0.1208343903945407       0.6794802953017589       
0.1409881547958298       0.617874759202561        
0.1409736931880383       0.6425059646849275       
0.1612905245175929       0.5810888229316232       
0.16117068971665         0.6056088501068501       
0.1815849167996493       0.5688881115771973       
0.2027875555451156       0.5318986225484664       
0.2238189013607315       0.5236001391797802       
0.2020193116027144       0.5568686621791691       
0.2762182650369209       0.424266277288542        
0.2639791344424237       0.444280045036146        
0.251458406655598        0.464326383566887        
0.2402920380086885       0.4840186210111115       
0.2523981043263497       0.5036473373004722       
0.2418669554831522       0.5182917730384249       
0.537506518385192        0.0196696572260217       
0.5500000000000052       0                        
0.5248522656559195       0.0391714640136822       
0.51211258089017         0.05852062252174867      
0.4992941473258148       0.0776819005418803       
0.4864312840047078       0.09669480691119825      
0.473562575745914        0.1156360341837271       
0.4607109830366919       0.1345674853236805       
0.4478874814924662       0.153478975115218        
0.4351340289845869       0.1724610291015937       
0.4224772626286915       0.1915918963723496       
0.4099094287009044       0.2108960507188723       
0.3974100737616242       0.2303856819006622       
0.3848484848484849       0.2500000000000001       
0.3748700960688828       0.263759178393642        
0.36                     0.285                    
0.3734972566449477       0.2748735575128852       
0.3747070417357309       0.3069325023641615       
0.3593175387480018       0.3256942361153644       
0.3469394439620099       0.3450689588831226       
0.3350009820584518       0.364807157802069        
0.3234847345011963       0.3845065041018751       
0.3120558762578775       0.4043994157432282       
0.300534510645007        0.4244944734017906       
0.02013882350610798      0.8643965517241377       
0                        0.8767241379310342       
0.02013882350610799      0.8890517241379309       
0                        0.9013793103448273       
0.04026823285541832      0.8520551666085989       
0.06041359227274814      0.7904672614474624       
0.0604021627123868       0.8397018667373688       
0.06040364794013512      0.8151257526305047       
0.08056849348355735      0.7781503349521266       
0.1006927653644725       0.7411231045627638       
0.1006941175305398       0.7657758620689654       
0.120837209857616        0.7041293288326497       
0.1208335487658734       0.7287822853268588       
0.1409717645427558       0.6671551724137931       
0.1409757892458462       0.6918046458595312       
0.1611234395775634       0.6301989429551663       
0.1611093998328562       0.6548348256084021       
0.181376801197431        0.5933660868778269       
0.1812826958067289       0.6178994985126972       
0.201658778534243        0.5812415437184936       